1
Properties=species:S:1:pos:R:3:tags:I:1:energies:R:1:forces:R:3 energy=2.96 free_energy=2.96 pbc="F F F"
Ag       0.00000000       0.00000000       0.00000000        1       2.96000000       0.00000000       0.00000000       0.00000000
