13
Properties=species:S:1:pos:R:3:tags:I:1:energies:R:1:forces:R:3 energy=6.581535014715335 free_energy=6.581535014715335 pbc="F F F"
Ag       0.00000000      -0.00000000       0.00000000        1       0.32664310      -0.00000000      -0.00000000       0.00000000
Ag       2.30362974      -0.00000000      -1.42372148        2       0.52124099       0.00031387      -0.00000000      -0.00019398
Ag       2.30362974      -0.00000000       1.42372148        2       0.52124099       0.00031387      -0.00000000       0.00019398
Ag      -2.30362974      -0.00000000      -1.42372148        2       0.52124099      -0.00031387      -0.00000000      -0.00019398
Ag      -2.30362974       0.00000000       1.42372148        2       0.52124099      -0.00031387      -0.00000000       0.00019398
Ag      -1.42372148       2.30362974      -0.00000000        2       0.52124099      -0.00019398       0.00031387       0.00000000
Ag       1.42372148       2.30362974      -0.00000000        2       0.52124099       0.00019398       0.00031387      -0.00000000
Ag      -1.42372148      -2.30362974      -0.00000000        2       0.52124099      -0.00019398      -0.00031387       0.00000000
Ag       1.42372148      -2.30362974      -0.00000000        2       0.52124099       0.00019398      -0.00031387       0.00000000
Ag      -0.00000000      -1.42372148       2.30362974        2       0.52124099      -0.00000000      -0.00019398       0.00031387
Ag      -0.00000000       1.42372148       2.30362974        2       0.52124099      -0.00000000       0.00019398       0.00031387
Ag      -0.00000000      -1.42372148      -2.30362974        2       0.52124099      -0.00000000      -0.00019398      -0.00031387
Ag      -0.00000000       1.42372148      -2.30362974        2       0.52124099      -0.00000000       0.00019398      -0.00031387
