147
Properties=species:S:1:pos:R:3:tags:I:1:energies:R:1:forces:R:3 energy=33.88793824194196 free_energy=33.88793824194196 pbc="F F F"
Ag      -0.00000000       0.00000000       0.00000000        1       0.28600341       0.00000000      -0.00000000      -0.00000000
Ag       2.30004796       0.00000000      -1.42150781        2       0.05404731       0.00457985      -0.00000000      -0.00283050
Ag       2.30004796       0.00000000       1.42150781        2       0.05404731       0.00457985       0.00000000       0.00283050
Ag      -2.30004796       0.00000000      -1.42150781        2       0.05404731      -0.00457985       0.00000000      -0.00283050
Ag      -2.30004796      -0.00000000       1.42150781        2       0.05404731      -0.00457985      -0.00000000       0.00283050
Ag      -1.42150781       2.30004796       0.00000000        2       0.05404731      -0.00283050       0.00457985      -0.00000000
Ag       1.42150781       2.30004796       0.00000000        2       0.05404731       0.00283050       0.00457985      -0.00000000
Ag      -1.42150781      -2.30004796      -0.00000000        2       0.05404731      -0.00283050      -0.00457985       0.00000000
Ag       1.42150781      -2.30004796       0.00000000        2       0.05404731       0.00283050      -0.00457985      -0.00000000
Ag       0.00000000      -1.42150781       2.30004796        2       0.05404731       0.00000000      -0.00283050       0.00457985
Ag      -0.00000000       1.42150781       2.30004796        2       0.05404731       0.00000000       0.00283050       0.00457985
Ag       0.00000000      -1.42150781      -2.30004796        2       0.05404731       0.00000000      -0.00283050      -0.00457985
Ag       0.00000000       1.42150781      -2.30004796        2       0.05404731      -0.00000000       0.00283050      -0.00457985
Ag       4.64070877       0.00000000      -2.86811575        3       0.05991287      -0.00285128       0.00000000       0.00176219
Ag       4.71131117       0.00000000       0.00000000        3       0.02162405      -0.00714837      -0.00000000       0.00000000
Ag       4.64070877       0.00000000       2.86811575        3       0.05991287      -0.00285128       0.00000000      -0.00176219
Ag      -4.64070877       0.00000000      -2.86811575        3       0.05991287       0.00285128      -0.00000000       0.00176219
Ag      -4.71131117      -0.00000000      -0.00000000        3       0.02162405       0.00714837       0.00000000      -0.00000000
Ag      -4.64070877       0.00000000       2.86811575        3       0.05991287       0.00285128      -0.00000000      -0.00176219
Ag      -2.86811575       4.64070877       0.00000000        3       0.05991287       0.00176219      -0.00285128       0.00000000
Ag      -0.00000000       4.71131117      -0.00000000        3       0.02162405       0.00000000      -0.00714837       0.00000000
Ag       2.86811575       4.64070877       0.00000000        3       0.05991287      -0.00176219      -0.00285128      -0.00000000
Ag      -2.86811575      -4.64070877       0.00000000        3       0.05991287       0.00176219       0.00285128       0.00000000
Ag      -0.00000000      -4.71131117      -0.00000000        3       0.02162405       0.00000000       0.00714837       0.00000000
Ag       2.86811575      -4.64070877      -0.00000000        3       0.05991287      -0.00176219       0.00285128      -0.00000000
Ag      -0.00000000      -2.86811575       4.64070877        3       0.05991287      -0.00000000       0.00176219      -0.00285128
Ag      -0.00000000      -0.00000000       4.71131117        3       0.02162405       0.00000000      -0.00000000      -0.00714837
Ag      -0.00000000       2.86811575       4.64070877        3       0.05991287      -0.00000000      -0.00176219      -0.00285128
Ag       0.00000000      -2.86811575      -4.64070877        3       0.05991287       0.00000000       0.00176219       0.00285128
Ag       0.00000000      -0.00000000      -4.71131117        3       0.02162405       0.00000000      -0.00000000       0.00714837
Ag       0.00000000       2.86811575      -4.64070877        3       0.05991287       0.00000000      -0.00176219       0.00285128
Ag       2.35565558      -1.45587522       3.81153080        3       0.02162405      -0.00357418       0.00220897      -0.00578315
Ag       2.35565558       1.45587522       3.81153080        3       0.02162405      -0.00357418      -0.00220897      -0.00578315
Ag       2.35565558      -1.45587522      -3.81153080        3       0.02162405      -0.00357418       0.00220897       0.00578315
Ag       2.35565558       1.45587522      -3.81153080        3       0.02162405      -0.00357418      -0.00220897       0.00578315
Ag      -2.35565558      -1.45587522       3.81153080        3       0.02162405       0.00357418       0.00220897      -0.00578315
Ag      -2.35565558       1.45587522       3.81153080        3       0.02162405       0.00357418      -0.00220897      -0.00578315
Ag      -2.35565558      -1.45587522      -3.81153080        3       0.02162405       0.00357418       0.00220897       0.00578315
Ag      -2.35565558       1.45587522      -3.81153080        3       0.02162405       0.00357418      -0.00220897       0.00578315
Ag       3.81153080       2.35565558      -1.45587522        3       0.02162405      -0.00578315      -0.00357418       0.00220897
Ag       3.81153080       2.35565558       1.45587522        3       0.02162405      -0.00578315      -0.00357418      -0.00220897
Ag      -3.81153080       2.35565558      -1.45587522        3       0.02162405       0.00578315      -0.00357418       0.00220897
Ag      -3.81153080       2.35565558       1.45587522        3       0.02162405       0.00578315      -0.00357418      -0.00220897
Ag       3.81153080      -2.35565558      -1.45587522        3       0.02162405      -0.00578315       0.00357418       0.00220897
Ag       3.81153080      -2.35565558       1.45587522        3       0.02162405      -0.00578315       0.00357418      -0.00220897
Ag      -3.81153080      -2.35565558      -1.45587522        3       0.02162405       0.00578315       0.00357418       0.00220897
Ag      -3.81153080      -2.35565558       1.45587522        3       0.02162405       0.00578315       0.00357418      -0.00220897
Ag      -1.45587522       3.81153080       2.35565558        3       0.02162405       0.00220897      -0.00578315      -0.00357418
Ag       1.45587522       3.81153080       2.35565558        3       0.02162405      -0.00220897      -0.00578315      -0.00357418
Ag      -1.45587522      -3.81153080       2.35565558        3       0.02162405       0.00220897       0.00578315      -0.00357418
Ag       1.45587522      -3.81153080       2.35565558        3       0.02162405      -0.00220897       0.00578315      -0.00357418
Ag      -1.45587522       3.81153080      -2.35565558        3       0.02162405       0.00220897      -0.00578315       0.00357418
Ag       1.45587522       3.81153080      -2.35565558        3       0.02162405      -0.00220897      -0.00578315       0.00357418
Ag      -1.45587522      -3.81153080      -2.35565558        3       0.02162405       0.00220897       0.00578315       0.00357418
Ag       1.45587522      -3.81153080      -2.35565558        3       0.02162405      -0.00220897       0.00578315       0.00357418
Ag       6.96644252       0.00000000      -4.30549826        4       0.52120433      -0.00481076       0.00000000       0.00297321
Ag       7.06868506      -0.00000000      -1.45968979        4       0.33836001       0.00562605       0.00000000      -0.00284929
Ag       7.06868506      -0.00000000       1.45968979        4       0.33836001       0.00562605      -0.00000000       0.00284929
Ag       6.96644252      -0.00000000       4.30549826        4       0.52120433      -0.00481076       0.00000000      -0.00297321
Ag      -6.96644252       0.00000000      -4.30549826        4       0.52120433       0.00481076      -0.00000000       0.00297321
Ag      -7.06868506       0.00000000      -1.45968979        4       0.33836001      -0.00562605       0.00000000      -0.00284929
Ag      -7.06868506      -0.00000000       1.45968979        4       0.33836001      -0.00562605       0.00000000       0.00284929
Ag      -6.96644252       0.00000000       4.30549826        4       0.52120433       0.00481076      -0.00000000      -0.00297321
Ag      -4.30549826       6.96644252      -0.00000000        4       0.52120433       0.00297321      -0.00481076      -0.00000000
Ag      -1.45968979       7.06868506      -0.00000000        4       0.33836001      -0.00284929       0.00562605      -0.00000000
Ag       1.45968979       7.06868506      -0.00000000        4       0.33836001       0.00284929       0.00562605       0.00000000
Ag       4.30549826       6.96644252       0.00000000        4       0.52120433      -0.00297321      -0.00481076       0.00000000
Ag      -4.30549826      -6.96644252       0.00000000        4       0.52120433       0.00297321       0.00481076      -0.00000000
Ag      -1.45968979      -7.06868506      -0.00000000        4       0.33836001      -0.00284929      -0.00562605      -0.00000000
Ag       1.45968979      -7.06868506      -0.00000000        4       0.33836001       0.00284929      -0.00562605       0.00000000
Ag       4.30549826      -6.96644252      -0.00000000        4       0.52120433      -0.00297321       0.00481076       0.00000000
Ag      -0.00000000      -4.30549826       6.96644252        4       0.52120433      -0.00000000       0.00297321      -0.00481076
Ag      -0.00000000      -1.45968979       7.06868506        4       0.33836001       0.00000000      -0.00284929       0.00562605
Ag      -0.00000000       1.45968979       7.06868506        4       0.33836001       0.00000000       0.00284929       0.00562605
Ag      -0.00000000       4.30549826       6.96644252        4       0.52120433       0.00000000      -0.00297321      -0.00481076
Ag       0.00000000      -4.30549826      -6.96644252        4       0.52120433      -0.00000000       0.00297321       0.00481076
Ag       0.00000000      -1.45968979      -7.06868506        4       0.33836001      -0.00000000      -0.00284929      -0.00562605
Ag       0.00000000       1.45968979      -7.06868506        4       0.33836001      -0.00000000       0.00284929      -0.00562605
Ag       0.00000000       4.30549826      -6.96644252        4       0.52120433       0.00000000      -0.00297321       0.00481076
Ag       4.71525638      -1.45449891       5.26761739        4       0.33836001       0.00511815      -0.00031390       0.00367109
Ag       2.35342868      -2.91418871       6.16975529        4       0.33836001       0.00050790      -0.00316319       0.00543205
Ag       4.71525638       1.45449891       5.26761739        4       0.33836001       0.00511815       0.00031390       0.00367109
Ag       2.38874714       0.00000000       6.25382120        4       0.25148192      -0.00109328      -0.00000000      -0.00286225
Ag       2.35342868       2.91418871       6.16975529        4       0.33836001       0.00050790       0.00316319       0.00543205
Ag       4.71525638      -1.45449891      -5.26761739        4       0.33836001       0.00511815      -0.00031390      -0.00367109
Ag       2.35342868      -2.91418871      -6.16975529        4       0.33836001       0.00050790      -0.00316319      -0.00543205
Ag       4.71525638       1.45449891      -5.26761739        4       0.33836001       0.00511815       0.00031390      -0.00367109
Ag       2.38874714       0.00000000      -6.25382120        4       0.25148192      -0.00109328      -0.00000000       0.00286225
Ag       2.35342868       2.91418871      -6.16975529        4       0.33836001       0.00050790       0.00316319      -0.00543205
Ag      -4.71525638      -1.45449891       5.26761739        4       0.33836001      -0.00511815      -0.00031390       0.00367109
Ag      -2.35342868      -2.91418871       6.16975529        4       0.33836001      -0.00050790      -0.00316319       0.00543205
Ag      -4.71525638       1.45449891       5.26761739        4       0.33836001      -0.00511815       0.00031390       0.00367109
Ag      -2.38874714       0.00000000       6.25382120        4       0.25148192       0.00109328      -0.00000000      -0.00286225
Ag      -2.35342868       2.91418871       6.16975529        4       0.33836001      -0.00050790       0.00316319       0.00543205
Ag      -4.71525638      -1.45449891      -5.26761739        4       0.33836001      -0.00511815      -0.00031390      -0.00367109
Ag      -2.35342868      -2.91418871      -6.16975529        4       0.33836001      -0.00050790      -0.00316319      -0.00543205
Ag      -4.71525638       1.45449891      -5.26761739        4       0.33836001      -0.00511815       0.00031390      -0.00367109
Ag      -2.38874714      -0.00000000      -6.25382120        4       0.25148192       0.00109328       0.00000000       0.00286225
Ag      -2.35342868       2.91418871      -6.16975529        4       0.33836001      -0.00050790       0.00316319      -0.00543205
Ag       5.26761739       4.71525638      -1.45449891        4       0.33836001       0.00367109       0.00511815      -0.00031390
Ag       6.16975529       2.35342868      -2.91418871        4       0.33836001       0.00543205       0.00050790      -0.00316319
Ag       5.26761739       4.71525638       1.45449891        4       0.33836001       0.00367109       0.00511815       0.00031390
Ag       6.25382120       2.38874714       0.00000000        4       0.25148192      -0.00286225      -0.00109328      -0.00000000
Ag       6.16975529       2.35342868       2.91418871        4       0.33836001       0.00543205       0.00050790       0.00316319
Ag      -5.26761739       4.71525638      -1.45449891        4       0.33836001      -0.00367109       0.00511815      -0.00031390
Ag      -6.16975529       2.35342868      -2.91418871        4       0.33836001      -0.00543205       0.00050790      -0.00316319
Ag      -5.26761739       4.71525638       1.45449891        4       0.33836001      -0.00367109       0.00511815       0.00031390
Ag      -6.25382120       2.38874714      -0.00000000        4       0.25148192       0.00286225      -0.00109328      -0.00000000
Ag      -6.16975529       2.35342868       2.91418871        4       0.33836001      -0.00543205       0.00050790       0.00316319
Ag       5.26761739      -4.71525638      -1.45449891        4       0.33836001       0.00367109      -0.00511815      -0.00031390
Ag       6.16975529      -2.35342868      -2.91418871        4       0.33836001       0.00543205      -0.00050790      -0.00316319
Ag       5.26761739      -4.71525638       1.45449891        4       0.33836001       0.00367109      -0.00511815       0.00031390
Ag       6.25382120      -2.38874714       0.00000000        4       0.25148192      -0.00286225       0.00109328       0.00000000
Ag       6.16975529      -2.35342868       2.91418871        4       0.33836001       0.00543205      -0.00050790       0.00316319
Ag      -5.26761739      -4.71525638      -1.45449891        4       0.33836001      -0.00367109      -0.00511815      -0.00031390
Ag      -6.16975529      -2.35342868      -2.91418871        4       0.33836001      -0.00543205      -0.00050790      -0.00316319
Ag      -5.26761739      -4.71525638       1.45449891        4       0.33836001      -0.00367109      -0.00511815       0.00031390
Ag      -6.25382120      -2.38874714       0.00000000        4       0.25148192       0.00286225       0.00109328      -0.00000000
Ag      -6.16975529      -2.35342868       2.91418871        4       0.33836001      -0.00543205      -0.00050790       0.00316319
Ag      -1.45449891       5.26761739       4.71525638        4       0.33836001      -0.00031390       0.00367109       0.00511815
Ag      -2.91418871       6.16975529       2.35342868        4       0.33836001      -0.00316319       0.00543205       0.00050790
Ag       1.45449891       5.26761739       4.71525638        4       0.33836001       0.00031390       0.00367109       0.00511815
Ag       0.00000000       6.25382120       2.38874714        4       0.25148192      -0.00000000      -0.00286225      -0.00109328
Ag       2.91418871       6.16975529       2.35342868        4       0.33836001       0.00316319       0.00543205       0.00050790
Ag      -1.45449891      -5.26761739       4.71525638        4       0.33836001      -0.00031390      -0.00367109       0.00511815
Ag      -2.91418871      -6.16975529       2.35342868        4       0.33836001      -0.00316319      -0.00543205       0.00050790
Ag       1.45449891      -5.26761739       4.71525638        4       0.33836001       0.00031390      -0.00367109       0.00511815
Ag      -0.00000000      -6.25382120       2.38874714        4       0.25148192       0.00000000       0.00286225      -0.00109328
Ag       2.91418871      -6.16975529       2.35342868        4       0.33836001       0.00316319      -0.00543205       0.00050790
Ag      -1.45449891       5.26761739      -4.71525638        4       0.33836001      -0.00031390       0.00367109      -0.00511815
Ag      -2.91418871       6.16975529      -2.35342868        4       0.33836001      -0.00316319       0.00543205      -0.00050790
Ag       1.45449891       5.26761739      -4.71525638        4       0.33836001       0.00031390       0.00367109      -0.00511815
Ag      -0.00000000       6.25382120      -2.38874714        4       0.25148192       0.00000000      -0.00286225       0.00109328
Ag       2.91418871       6.16975529      -2.35342868        4       0.33836001       0.00316319       0.00543205      -0.00050790
Ag      -1.45449891      -5.26761739      -4.71525638        4       0.33836001      -0.00031390      -0.00367109      -0.00511815
Ag      -2.91418871      -6.16975529      -2.35342868        4       0.33836001      -0.00316319      -0.00543205      -0.00050790
Ag       1.45449891      -5.26761739      -4.71525638        4       0.33836001       0.00031390      -0.00367109      -0.00511815
Ag      -0.00000000      -6.25382120      -2.38874714        4       0.25148192       0.00000000       0.00286225       0.00109328
Ag       2.91418871      -6.16975529      -2.35342868        4       0.33836001       0.00316319      -0.00543205      -0.00050790
Ag       3.86507406      -3.86507406       3.86507406        4       0.25148192      -0.00176897       0.00176897      -0.00176897
Ag       3.86507406       3.86507406       3.86507406        4       0.25148192      -0.00176897      -0.00176897      -0.00176897
Ag       3.86507406      -3.86507406      -3.86507406        4       0.25148192      -0.00176897       0.00176897       0.00176897
Ag       3.86507406       3.86507406      -3.86507406        4       0.25148192      -0.00176897      -0.00176897       0.00176897
Ag      -3.86507406      -3.86507406       3.86507406        4       0.25148192       0.00176897       0.00176897      -0.00176897
Ag      -3.86507406       3.86507406       3.86507406        4       0.25148192       0.00176897      -0.00176897      -0.00176897
Ag      -3.86507406      -3.86507406      -3.86507406        4       0.25148192       0.00176897       0.00176897       0.00176897
Ag      -3.86507406       3.86507406      -3.86507406        4       0.25148192       0.00176897      -0.00176897       0.00176897
