13
Properties=species:S:1:pos:R:3:tags:I:1:energies:R:1:forces:R:3 energy=9.361357958351476 free_energy=9.361357958351476 pbc="F F F"
Cu      -0.00000000      -0.00000000      -0.00000000        1       0.38914645       0.00000000      -0.00000000      -0.00000000
Cu       2.05433395      -0.00000000      -1.26964821        2       0.74768429       0.00034999      -0.00000000      -0.00021630
Cu       2.05433395      -0.00000000       1.26964821        2       0.74768429       0.00034999      -0.00000000       0.00021630
Cu      -2.05433395      -0.00000000      -1.26964821        2       0.74768429      -0.00034999       0.00000000      -0.00021630
Cu      -2.05433395       0.00000000       1.26964821        2       0.74768429      -0.00034999       0.00000000       0.00021630
Cu      -1.26964821       2.05433395      -0.00000000        2       0.74768429      -0.00021630       0.00034999      -0.00000000
Cu       1.26964821       2.05433395      -0.00000000        2       0.74768429       0.00021630       0.00034999      -0.00000000
Cu      -1.26964821      -2.05433395      -0.00000000        2       0.74768429      -0.00021630      -0.00034999       0.00000000
Cu       1.26964821      -2.05433395      -0.00000000        2       0.74768429       0.00021630      -0.00034999       0.00000000
Cu      -0.00000000      -1.26964821       2.05433395        2       0.74768429      -0.00000000      -0.00021630       0.00034999
Cu      -0.00000000       1.26964821       2.05433395        2       0.74768429      -0.00000000       0.00021630       0.00034999
Cu       0.00000000      -1.26964821      -2.05433395        2       0.74768429       0.00000000      -0.00021630      -0.00034999
Cu       0.00000000       1.26964821      -2.05433395        2       0.74768429       0.00000000       0.00021630      -0.00034999
