147
Properties=species:S:1:pos:R:3:tags:I:1:energies:R:1:forces:R:3 energy=47.397158165613206 free_energy=47.397158165613206 pbc="F F F"
Cu      -0.00000000      -0.00000000      -0.00000000        1       0.33786415      -0.00000000       0.00000000       0.00000000
Cu       2.02968858       0.00000000      -1.25441653        2       0.05631586       0.00738013       0.00000000      -0.00456117
Cu       2.02968858       0.00000000       1.25441653        2       0.05631586       0.00738013      -0.00000000       0.00456117
Cu      -2.02968858       0.00000000      -1.25441653        2       0.05631586      -0.00738013      -0.00000000      -0.00456117
Cu      -2.02968858      -0.00000000       1.25441653        2       0.05631586      -0.00738013      -0.00000000       0.00456117
Cu      -1.25441653       2.02968858       0.00000000        2       0.05631586      -0.00456117       0.00738013      -0.00000000
Cu       1.25441653       2.02968858      -0.00000000        2       0.05631586       0.00456117       0.00738013       0.00000000
Cu      -1.25441653      -2.02968858      -0.00000000        2       0.05631586      -0.00456117      -0.00738013       0.00000000
Cu       1.25441653      -2.02968858       0.00000000        2       0.05631586       0.00456117      -0.00738013       0.00000000
Cu      -0.00000000      -1.25441653       2.02968858        2       0.05631586       0.00000000      -0.00456117       0.00738013
Cu      -0.00000000       1.25441653       2.02968858        2       0.05631586       0.00000000       0.00456117       0.00738013
Cu      -0.00000000      -1.25441653      -2.02968858        2       0.05631586       0.00000000      -0.00456117      -0.00738013
Cu      -0.00000000       1.25441653      -2.02968858        2       0.05631586       0.00000000       0.00456117      -0.00738013
Cu       4.10404064       0.00000000      -2.53643661        3       0.07685590      -0.00694318       0.00000000       0.00429112
Cu       4.15927162       0.00000000       0.00000000        3       0.01902083      -0.00495229       0.00000000       0.00000000
Cu       4.10404064       0.00000000       2.53643661        3       0.07685590      -0.00694318       0.00000000      -0.00429112
Cu      -4.10404064      -0.00000000      -2.53643661        3       0.07685590       0.00694318       0.00000000       0.00429112
Cu      -4.15927162      -0.00000000       0.00000000        3       0.01902083       0.00495229      -0.00000000      -0.00000000
Cu      -4.10404064      -0.00000000       2.53643661        3       0.07685590       0.00694318      -0.00000000      -0.00429112
Cu      -2.53643661       4.10404064       0.00000000        3       0.07685590       0.00429112      -0.00694318      -0.00000000
Cu       0.00000000       4.15927162      -0.00000000        3       0.01902083      -0.00000000      -0.00495229       0.00000000
Cu       2.53643661       4.10404064      -0.00000000        3       0.07685590      -0.00429112      -0.00694318       0.00000000
Cu      -2.53643661      -4.10404064      -0.00000000        3       0.07685590       0.00429112       0.00694318       0.00000000
Cu       0.00000000      -4.15927162      -0.00000000        3       0.01902083      -0.00000000       0.00495229      -0.00000000
Cu       2.53643661      -4.10404064      -0.00000000        3       0.07685590      -0.00429112       0.00694318       0.00000000
Cu       0.00000000      -2.53643661       4.10404064        3       0.07685590       0.00000000       0.00429112      -0.00694318
Cu      -0.00000000       0.00000000       4.15927162        3       0.01902083      -0.00000000      -0.00000000      -0.00495229
Cu      -0.00000000       2.53643661       4.10404064        3       0.07685590       0.00000000      -0.00429112      -0.00694318
Cu       0.00000000      -2.53643661      -4.10404064        3       0.07685590      -0.00000000       0.00429112       0.00694318
Cu      -0.00000000      -0.00000000      -4.15927162        3       0.01902083      -0.00000000       0.00000000       0.00495229
Cu      -0.00000000       2.53643661      -4.10404064        3       0.07685590      -0.00000000      -0.00429112       0.00694318
Cu       2.07963581      -1.28528562       3.36492143        3       0.01902083      -0.00247615       0.00153034      -0.00400649
Cu       2.07963581       1.28528562       3.36492143        3       0.01902083      -0.00247615      -0.00153034      -0.00400649
Cu       2.07963581      -1.28528562      -3.36492143        3       0.01902083      -0.00247615       0.00153034       0.00400649
Cu       2.07963581       1.28528562      -3.36492143        3       0.01902083      -0.00247615      -0.00153034       0.00400649
Cu      -2.07963581      -1.28528562       3.36492143        3       0.01902083       0.00247615       0.00153034      -0.00400649
Cu      -2.07963581       1.28528562       3.36492143        3       0.01902083       0.00247615      -0.00153034      -0.00400649
Cu      -2.07963581      -1.28528562      -3.36492143        3       0.01902083       0.00247615       0.00153034       0.00400649
Cu      -2.07963581       1.28528562      -3.36492143        3       0.01902083       0.00247615      -0.00153034       0.00400649
Cu       3.36492143       2.07963581      -1.28528562        3       0.01902083      -0.00400649      -0.00247615       0.00153034
Cu       3.36492143       2.07963581       1.28528562        3       0.01902083      -0.00400649      -0.00247615      -0.00153034
Cu      -3.36492143       2.07963581      -1.28528562        3       0.01902083       0.00400649      -0.00247615       0.00153034
Cu      -3.36492143       2.07963581       1.28528562        3       0.01902083       0.00400649      -0.00247615      -0.00153034
Cu       3.36492143      -2.07963581      -1.28528562        3       0.01902083      -0.00400649       0.00247615       0.00153034
Cu       3.36492143      -2.07963581       1.28528562        3       0.01902083      -0.00400649       0.00247615      -0.00153034
Cu      -3.36492143      -2.07963581      -1.28528562        3       0.01902083       0.00400649       0.00247615       0.00153034
Cu      -3.36492143      -2.07963581       1.28528562        3       0.01902083       0.00400649       0.00247615      -0.00153034
Cu      -1.28528562       3.36492143       2.07963581        3       0.01902083       0.00153034      -0.00400649      -0.00247615
Cu       1.28528562       3.36492143       2.07963581        3       0.01902083      -0.00153034      -0.00400649      -0.00247615
Cu      -1.28528562      -3.36492143       2.07963581        3       0.01902083       0.00153034       0.00400649      -0.00247615
Cu       1.28528562      -3.36492143       2.07963581        3       0.01902083      -0.00153034       0.00400649      -0.00247615
Cu      -1.28528562       3.36492143      -2.07963581        3       0.01902083       0.00153034      -0.00400649       0.00247615
Cu       1.28528562       3.36492143      -2.07963581        3       0.01902083      -0.00153034      -0.00400649       0.00247615
Cu      -1.28528562      -3.36492143      -2.07963581        3       0.01902083       0.00153034       0.00400649       0.00247615
Cu       1.28528562      -3.36492143      -2.07963581        3       0.01902083      -0.00153034       0.00400649       0.00247615
Cu       6.18908697       0.00000000      -3.82506611        4       0.74110145       0.00221659       0.00000000      -0.00136993
Cu       6.26750835       0.00000000      -1.29174652        4       0.48138039       0.00020216       0.00000000      -0.00258606
Cu       6.26750835       0.00000000       1.29174652        4       0.48138039       0.00020216      -0.00000000       0.00258606
Cu       6.18908697       0.00000000       3.82506611        4       0.74110145       0.00221659      -0.00000000       0.00136993
Cu      -6.18908697      -0.00000000      -3.82506611        4       0.74110145      -0.00221659       0.00000000      -0.00136993
Cu      -6.26750835      -0.00000000      -1.29174652        4       0.48138039      -0.00020216      -0.00000000      -0.00258606
Cu      -6.26750835      -0.00000000       1.29174652        4       0.48138039      -0.00020216      -0.00000000       0.00258606
Cu      -6.18908697      -0.00000000       3.82506611        4       0.74110145      -0.00221659       0.00000000       0.00136993
Cu      -3.82506611       6.18908697      -0.00000000        4       0.74110145      -0.00136993       0.00221659      -0.00000000
Cu      -1.29174652       6.26750835      -0.00000000        4       0.48138039      -0.00258606       0.00020216       0.00000000
Cu       1.29174652       6.26750835      -0.00000000        4       0.48138039       0.00258606       0.00020216      -0.00000000
Cu       3.82506611       6.18908697       0.00000000        4       0.74110145       0.00136993       0.00221659      -0.00000000
Cu      -3.82506611      -6.18908697      -0.00000000        4       0.74110145      -0.00136993      -0.00221659       0.00000000
Cu      -1.29174652      -6.26750835       0.00000000        4       0.48138039      -0.00258606      -0.00020216      -0.00000000
Cu       1.29174652      -6.26750835      -0.00000000        4       0.48138039       0.00258606      -0.00020216      -0.00000000
Cu       3.82506611      -6.18908697      -0.00000000        4       0.74110145       0.00136993      -0.00221659       0.00000000
Cu       0.00000000      -3.82506611       6.18908697        4       0.74110145      -0.00000000      -0.00136993       0.00221659
Cu       0.00000000      -1.29174652       6.26750835        4       0.48138039      -0.00000000      -0.00258606       0.00020216
Cu       0.00000000       1.29174652       6.26750835        4       0.48138039      -0.00000000       0.00258606       0.00020216
Cu       0.00000000       3.82506611       6.18908697        4       0.74110145      -0.00000000       0.00136993       0.00221659
Cu      -0.00000000      -3.82506611      -6.18908697        4       0.74110145       0.00000000      -0.00136993      -0.00221659
Cu      -0.00000000      -1.29174652      -6.26750835        4       0.48138039      -0.00000000      -0.00258606      -0.00020216
Cu       0.00000000       1.29174652      -6.26750835        4       0.48138039      -0.00000000       0.00258606      -0.00020216
Cu      -0.00000000       3.82506611      -6.18908697        4       0.74110145       0.00000000       0.00136993      -0.00221659
Cu       4.17879907      -1.29089333       4.67134914        4       0.48138039       0.00219325       0.00123056      -0.00063558
Cu       2.08870929      -2.58263986       5.46969240        4       0.48138039      -0.00199109      -0.00135550       0.00096269
Cu       4.17879907       1.29089333       4.67134914        4       0.48138039       0.00219325      -0.00123056      -0.00063558
Cu       2.11453713       0.00000000       5.53593007        4       0.35572835       0.00009571      -0.00000000       0.00025057
Cu       2.08870929       2.58263986       5.46969240        4       0.48138039      -0.00199109       0.00135550       0.00096269
Cu       4.17879907      -1.29089333      -4.67134914        4       0.48138039       0.00219325       0.00123056       0.00063558
Cu       2.08870929      -2.58263986      -5.46969240        4       0.48138039      -0.00199109      -0.00135550      -0.00096269
Cu       4.17879907       1.29089333      -4.67134914        4       0.48138039       0.00219325      -0.00123056       0.00063558
Cu       2.11453713       0.00000000      -5.53593007        4       0.35572835       0.00009571      -0.00000000      -0.00025057
Cu       2.08870929       2.58263986      -5.46969240        4       0.48138039      -0.00199109       0.00135550      -0.00096269
Cu      -4.17879907      -1.29089333       4.67134914        4       0.48138039      -0.00219325       0.00123056      -0.00063558
Cu      -2.08870929      -2.58263986       5.46969240        4       0.48138039       0.00199109      -0.00135550       0.00096269
Cu      -4.17879907       1.29089333       4.67134914        4       0.48138039      -0.00219325      -0.00123056      -0.00063558
Cu      -2.11453713      -0.00000000       5.53593007        4       0.35572835      -0.00009571      -0.00000000       0.00025057
Cu      -2.08870929       2.58263986       5.46969240        4       0.48138039       0.00199109       0.00135550       0.00096269
Cu      -4.17879907      -1.29089333      -4.67134914        4       0.48138039      -0.00219325       0.00123056       0.00063558
Cu      -2.08870929      -2.58263986      -5.46969240        4       0.48138039       0.00199109      -0.00135550      -0.00096269
Cu      -4.17879907       1.29089333      -4.67134914        4       0.48138039      -0.00219325      -0.00123056       0.00063558
Cu      -2.11453713       0.00000000      -5.53593007        4       0.35572835      -0.00009571      -0.00000000      -0.00025057
Cu      -2.08870929       2.58263986      -5.46969240        4       0.48138039       0.00199109       0.00135550      -0.00096269
Cu       4.67134914       4.17879907      -1.29089333        4       0.48138039      -0.00063558       0.00219325       0.00123056
Cu       5.46969240       2.08870929      -2.58263986        4       0.48138039       0.00096269      -0.00199109      -0.00135550
Cu       4.67134914       4.17879907       1.29089333        4       0.48138039      -0.00063558       0.00219325      -0.00123056
Cu       5.53593007       2.11453713      -0.00000000        4       0.35572835       0.00025057       0.00009571       0.00000000
Cu       5.46969240       2.08870929       2.58263986        4       0.48138039       0.00096269      -0.00199109       0.00135550
Cu      -4.67134914       4.17879907      -1.29089333        4       0.48138039       0.00063558       0.00219325       0.00123056
Cu      -5.46969240       2.08870929      -2.58263986        4       0.48138039      -0.00096269      -0.00199109      -0.00135550
Cu      -4.67134914       4.17879907       1.29089333        4       0.48138039       0.00063558       0.00219325      -0.00123056
Cu      -5.53593007       2.11453713       0.00000000        4       0.35572835      -0.00025057       0.00009571      -0.00000000
Cu      -5.46969240       2.08870929       2.58263986        4       0.48138039      -0.00096269      -0.00199109       0.00135550
Cu       4.67134914      -4.17879907      -1.29089333        4       0.48138039      -0.00063558      -0.00219325       0.00123056
Cu       5.46969240      -2.08870929      -2.58263986        4       0.48138039       0.00096269       0.00199109      -0.00135550
Cu       4.67134914      -4.17879907       1.29089333        4       0.48138039      -0.00063558      -0.00219325      -0.00123056
Cu       5.53593007      -2.11453713      -0.00000000        4       0.35572835       0.00025057      -0.00009571      -0.00000000
Cu       5.46969240      -2.08870929       2.58263986        4       0.48138039       0.00096269       0.00199109       0.00135550
Cu      -4.67134914      -4.17879907      -1.29089333        4       0.48138039       0.00063558      -0.00219325       0.00123056
Cu      -5.46969240      -2.08870929      -2.58263986        4       0.48138039      -0.00096269       0.00199109      -0.00135550
Cu      -4.67134914      -4.17879907       1.29089333        4       0.48138039       0.00063558      -0.00219325      -0.00123056
Cu      -5.53593007      -2.11453713       0.00000000        4       0.35572835      -0.00025057      -0.00009571      -0.00000000
Cu      -5.46969240      -2.08870929       2.58263986        4       0.48138039      -0.00096269       0.00199109       0.00135550
Cu      -1.29089333       4.67134914       4.17879907        4       0.48138039       0.00123056      -0.00063558       0.00219325
Cu      -2.58263986       5.46969240       2.08870929        4       0.48138039      -0.00135550       0.00096269      -0.00199109
Cu       1.29089333       4.67134914       4.17879907        4       0.48138039      -0.00123056      -0.00063558       0.00219325
Cu      -0.00000000       5.53593007       2.11453713        4       0.35572835       0.00000000       0.00025057       0.00009571
Cu       2.58263986       5.46969240       2.08870929        4       0.48138039       0.00135550       0.00096269      -0.00199109
Cu      -1.29089333      -4.67134914       4.17879907        4       0.48138039       0.00123056       0.00063558       0.00219325
Cu      -2.58263986      -5.46969240       2.08870929        4       0.48138039      -0.00135550      -0.00096269      -0.00199109
Cu       1.29089333      -4.67134914       4.17879907        4       0.48138039      -0.00123056       0.00063558       0.00219325
Cu       0.00000000      -5.53593007       2.11453713        4       0.35572835       0.00000000      -0.00025057       0.00009571
Cu       2.58263986      -5.46969240       2.08870929        4       0.48138039       0.00135550      -0.00096269      -0.00199109
Cu      -1.29089333       4.67134914      -4.17879907        4       0.48138039       0.00123056      -0.00063558      -0.00219325
Cu      -2.58263986       5.46969240      -2.08870929        4       0.48138039      -0.00135550       0.00096269       0.00199109
Cu       1.29089333       4.67134914      -4.17879907        4       0.48138039      -0.00123056      -0.00063558      -0.00219325
Cu       0.00000000       5.53593007      -2.11453713        4       0.35572835       0.00000000       0.00025057      -0.00009571
Cu       2.58263986       5.46969240      -2.08870929        4       0.48138039       0.00135550       0.00096269       0.00199109
Cu      -1.29089333      -4.67134914      -4.17879907        4       0.48138039       0.00123056       0.00063558      -0.00219325
Cu      -2.58263986      -5.46969240      -2.08870929        4       0.48138039      -0.00135550      -0.00096269       0.00199109
Cu       1.29089333      -4.67134914      -4.17879907        4       0.48138039      -0.00123056       0.00063558      -0.00219325
Cu       0.00000000      -5.53593007      -2.11453713        4       0.35572835      -0.00000000      -0.00025057      -0.00009571
Cu       2.58263986      -5.46969240      -2.08870929        4       0.48138039       0.00135550      -0.00096269       0.00199109
Cu       3.42139294      -3.42139294       3.42139294        4       0.35572835       0.00015486      -0.00015486       0.00015486
Cu       3.42139294       3.42139294       3.42139294        4       0.35572835       0.00015486       0.00015486       0.00015486
Cu       3.42139294      -3.42139294      -3.42139294        4       0.35572835       0.00015486      -0.00015486      -0.00015486
Cu       3.42139294       3.42139294      -3.42139294        4       0.35572835       0.00015486       0.00015486      -0.00015486
Cu      -3.42139294      -3.42139294       3.42139294        4       0.35572835      -0.00015486      -0.00015486       0.00015486
Cu      -3.42139294       3.42139294       3.42139294        4       0.35572835      -0.00015486       0.00015486       0.00015486
Cu      -3.42139294      -3.42139294      -3.42139294        4       0.35572835      -0.00015486      -0.00015486      -0.00015486
Cu      -3.42139294       3.42139294      -3.42139294        4       0.35572835      -0.00015486       0.00015486      -0.00015486
