1
Properties=species:S:1:pos:R:3:tags:I:1:energies:R:1:forces:R:3 energy=3.9 free_energy=3.9 pbc="F F F"
Pd       0.00000000       0.00000000       0.00000000        1       3.90000000       0.00000000       0.00000000       0.00000000
