13
Properties=species:S:1:pos:R:3:tags:I:1:energies:R:1:forces:R:3 energy=7.566330930054306 free_energy=7.566330930054306 pbc="F F F"
Pd       0.00000000      -0.00000000       0.00000000        1       0.53245851       0.00000000      -0.00000000      -0.00000000
Pd       2.18202927      -0.00000000      -1.34856825        2       0.58615603       0.00171974      -0.00000000      -0.00106286
Pd       2.18202927      -0.00000000       1.34856825        2       0.58615603       0.00171974      -0.00000000       0.00106286
Pd      -2.18202927      -0.00000000      -1.34856825        2       0.58615603      -0.00171974      -0.00000000      -0.00106286
Pd      -2.18202927      -0.00000000       1.34856825        2       0.58615603      -0.00171974      -0.00000000       0.00106286
Pd      -1.34856825       2.18202927       0.00000000        2       0.58615603      -0.00106286       0.00171974       0.00000000
Pd       1.34856825       2.18202927       0.00000000        2       0.58615603       0.00106286       0.00171974       0.00000000
Pd      -1.34856825      -2.18202927       0.00000000        2       0.58615603      -0.00106286      -0.00171974       0.00000000
Pd       1.34856825      -2.18202927      -0.00000000        2       0.58615603       0.00106286      -0.00171974       0.00000000
Pd       0.00000000      -1.34856825       2.18202927        2       0.58615603       0.00000000      -0.00106286       0.00171974
Pd       0.00000000       1.34856825       2.18202927        2       0.58615603       0.00000000       0.00106286       0.00171974
Pd       0.00000000      -1.34856825      -2.18202927        2       0.58615603       0.00000000      -0.00106286      -0.00171974
Pd       0.00000000       1.34856825      -2.18202927        2       0.58615603       0.00000000       0.00106286      -0.00171974
