55
Properties=species:S:1:pos:R:3:tags:I:1:energies:R:1:forces:R:3 energy=20.004757827726433 free_energy=20.004757827726433 pbc="F F F"
Pd      -0.00000000      -0.00000000       0.00000000        1       0.29236627       0.00000000       0.00000000      -0.00000000
Pd       2.21576612      -0.00000000      -1.36941878        2       0.10818683       0.00258910       0.00000000      -0.00160015
Pd       2.21576612       0.00000000       1.36941878        2       0.10818683       0.00258910       0.00000000       0.00160015
Pd      -2.21576612      -0.00000000      -1.36941878        2       0.10818683      -0.00258910      -0.00000000      -0.00160015
Pd      -2.21576612       0.00000000       1.36941878        2       0.10818683      -0.00258910       0.00000000       0.00160015
Pd      -1.36941878       2.21576612       0.00000000        2       0.10818683      -0.00160015       0.00258910      -0.00000000
Pd       1.36941878       2.21576612      -0.00000000        2       0.10818683       0.00160015       0.00258910       0.00000000
Pd      -1.36941878      -2.21576612      -0.00000000        2       0.10818683      -0.00160015      -0.00258910       0.00000000
Pd       1.36941878      -2.21576612      -0.00000000        2       0.10818683       0.00160015      -0.00258910      -0.00000000
Pd      -0.00000000      -1.36941878       2.21576612        2       0.10818683       0.00000000      -0.00160015       0.00258910
Pd       0.00000000       1.36941878       2.21576612        2       0.10818683      -0.00000000       0.00160015       0.00258910
Pd       0.00000000      -1.36941878      -2.21576612        2       0.10818683      -0.00000000      -0.00160015      -0.00258910
Pd      -0.00000000       1.36941878      -2.21576612        2       0.10818683      -0.00000000       0.00160015      -0.00258910
Pd       4.39023285      -0.00000000      -2.71331312        3       0.59802023       0.00232082      -0.00000000      -0.00143434
Pd       4.48415103      -0.00000000      -0.00000000        3       0.37459690       0.00902755       0.00000000       0.00000000
Pd       4.39023285      -0.00000000       2.71331312        3       0.59802023       0.00232082       0.00000000       0.00143434
Pd      -4.39023285      -0.00000000      -2.71331312        3       0.59802023      -0.00232082       0.00000000      -0.00143434
Pd      -4.48415103      -0.00000000      -0.00000000        3       0.37459690      -0.00902755       0.00000000       0.00000000
Pd      -4.39023285       0.00000000       2.71331312        3       0.59802023      -0.00232082       0.00000000       0.00143434
Pd      -2.71331312       4.39023285      -0.00000000        3       0.59802023      -0.00143434       0.00232082       0.00000000
Pd      -0.00000000       4.48415103       0.00000000        3       0.37459690       0.00000000       0.00902755      -0.00000000
Pd       2.71331312       4.39023285       0.00000000        3       0.59802023       0.00143434       0.00232082       0.00000000
Pd      -2.71331312      -4.39023285      -0.00000000        3       0.59802023      -0.00143434      -0.00232082       0.00000000
Pd      -0.00000000      -4.48415103      -0.00000000        3       0.37459690       0.00000000      -0.00902755       0.00000000
Pd       2.71331312      -4.39023285       0.00000000        3       0.59802023       0.00143434      -0.00232082      -0.00000000
Pd      -0.00000000      -2.71331312       4.39023285        3       0.59802023       0.00000000      -0.00143434       0.00232082
Pd      -0.00000000       0.00000000       4.48415103        3       0.37459690      -0.00000000      -0.00000000       0.00902755
Pd       0.00000000       2.71331312       4.39023285        3       0.59802023      -0.00000000       0.00143434       0.00232082
Pd       0.00000000      -2.71331312      -4.39023285        3       0.59802023      -0.00000000      -0.00143434      -0.00232082
Pd      -0.00000000      -0.00000000      -4.48415103        3       0.37459690      -0.00000000      -0.00000000      -0.00902755
Pd      -0.00000000       2.71331312      -4.39023285        3       0.59802023      -0.00000000       0.00143434      -0.00232082
Pd       2.24207551      -1.38567887       3.62775439        3       0.37459690       0.00451378      -0.00278967       0.00730344
Pd       2.24207551       1.38567887       3.62775439        3       0.37459690       0.00451378       0.00278967       0.00730344
Pd       2.24207551      -1.38567887      -3.62775439        3       0.37459690       0.00451378      -0.00278967      -0.00730344
Pd       2.24207551       1.38567887      -3.62775439        3       0.37459690       0.00451378       0.00278967      -0.00730344
Pd      -2.24207551      -1.38567887       3.62775439        3       0.37459690      -0.00451378      -0.00278967       0.00730344
Pd      -2.24207551       1.38567887       3.62775439        3       0.37459690      -0.00451378       0.00278967       0.00730344
Pd      -2.24207551      -1.38567887      -3.62775439        3       0.37459690      -0.00451378      -0.00278967      -0.00730344
Pd      -2.24207551       1.38567887      -3.62775439        3       0.37459690      -0.00451378       0.00278967      -0.00730344
Pd       3.62775439       2.24207551      -1.38567887        3       0.37459690       0.00730344       0.00451378      -0.00278967
Pd       3.62775439       2.24207551       1.38567887        3       0.37459690       0.00730344       0.00451378       0.00278967
Pd      -3.62775439       2.24207551      -1.38567887        3       0.37459690      -0.00730344       0.00451378      -0.00278967
Pd      -3.62775439       2.24207551       1.38567887        3       0.37459690      -0.00730344       0.00451378       0.00278967
Pd       3.62775439      -2.24207551      -1.38567887        3       0.37459690       0.00730344      -0.00451378      -0.00278967
Pd       3.62775439      -2.24207551       1.38567887        3       0.37459690       0.00730344      -0.00451378       0.00278967
Pd      -3.62775439      -2.24207551      -1.38567887        3       0.37459690      -0.00730344      -0.00451378      -0.00278967
Pd      -3.62775439      -2.24207551       1.38567887        3       0.37459690      -0.00730344      -0.00451378       0.00278967
Pd      -1.38567887       3.62775439       2.24207551        3       0.37459690      -0.00278967       0.00730344       0.00451378
Pd       1.38567887       3.62775439       2.24207551        3       0.37459690       0.00278967       0.00730344       0.00451378
Pd      -1.38567887      -3.62775439       2.24207551        3       0.37459690      -0.00278967      -0.00730344       0.00451378
Pd       1.38567887      -3.62775439       2.24207551        3       0.37459690       0.00278967      -0.00730344       0.00451378
Pd      -1.38567887       3.62775439      -2.24207551        3       0.37459690      -0.00278967       0.00730344      -0.00451378
Pd       1.38567887       3.62775439      -2.24207551        3       0.37459690       0.00278967       0.00730344      -0.00451378
Pd      -1.38567887      -3.62775439      -2.24207551        3       0.37459690      -0.00278967      -0.00730344      -0.00451378
Pd       1.38567887      -3.62775439      -2.24207551        3       0.37459690       0.00278967      -0.00730344      -0.00451378
