55
Properties=species:S:1:pos:R:3:tags:I:1:energies:R:1:forces:R:3 energy=17.47195795422946 free_energy=17.47195795422946 pbc="F F F"
Ag      -0.00000000       0.00000000      -0.00000000        1       0.22666475      -0.00000000      -0.00000000      -0.00000000
Ag       2.31725807      -0.00000000      -1.43214425        2       0.07056126       0.00093929       0.00000000      -0.00058051
Ag       2.31725807      -0.00000000       1.43214425        2       0.07056126       0.00093929       0.00000000       0.00058051
Ag      -2.31725807       0.00000000      -1.43214425        2       0.07056126      -0.00093929      -0.00000000      -0.00058051
Ag      -2.31725807      -0.00000000       1.43214425        2       0.07056126      -0.00093929       0.00000000       0.00058051
Ag      -1.43214425       2.31725807      -0.00000000        2       0.07056126      -0.00058051       0.00093929      -0.00000000
Ag       1.43214425       2.31725807      -0.00000000        2       0.07056126       0.00058051       0.00093929      -0.00000000
Ag      -1.43214425      -2.31725807       0.00000000        2       0.07056126      -0.00058051      -0.00093929      -0.00000000
Ag       1.43214425      -2.31725807      -0.00000000        2       0.07056126       0.00058051      -0.00093929       0.00000000
Ag      -0.00000000      -1.43214425       2.31725807        2       0.07056126       0.00000000      -0.00058051       0.00093929
Ag       0.00000000       1.43214425       2.31725807        2       0.07056126       0.00000000       0.00058051       0.00093929
Ag      -0.00000000      -1.43214425      -2.31725807        2       0.07056126      -0.00000000      -0.00058051      -0.00093929
Ag      -0.00000000       1.43214425      -2.31725807        2       0.07056126       0.00000000       0.00058051      -0.00093929
Ag       4.62585031      -0.00000000      -2.85893272        3       0.52616546       0.00578779       0.00000000      -0.00357705
Ag       4.71433368       0.00000000      -0.00000000        3       0.33615242      -0.00485316      -0.00000000      -0.00000000
Ag       4.62585031      -0.00000000       2.85893272        3       0.52616546       0.00578779       0.00000000       0.00357705
Ag      -4.62585031      -0.00000000      -2.85893272        3       0.52616546      -0.00578779       0.00000000      -0.00357705
Ag      -4.71433368       0.00000000       0.00000000        3       0.33615242       0.00485316      -0.00000000       0.00000000
Ag      -4.62585031      -0.00000000       2.85893272        3       0.52616546      -0.00578779       0.00000000       0.00357705
Ag      -2.85893272       4.62585031       0.00000000        3       0.52616546      -0.00357705       0.00578779      -0.00000000
Ag       0.00000000       4.71433368      -0.00000000        3       0.33615242       0.00000000      -0.00485316      -0.00000000
Ag       2.85893272       4.62585031       0.00000000        3       0.52616546       0.00357705       0.00578779       0.00000000
Ag      -2.85893272      -4.62585031       0.00000000        3       0.52616546      -0.00357705      -0.00578779      -0.00000000
Ag       0.00000000      -4.71433368       0.00000000        3       0.33615242      -0.00000000       0.00485316      -0.00000000
Ag       2.85893272      -4.62585031      -0.00000000        3       0.52616546       0.00357705      -0.00578779       0.00000000
Ag       0.00000000      -2.85893272       4.62585031        3       0.52616546       0.00000000      -0.00357705       0.00578779
Ag      -0.00000000       0.00000000       4.71433368        3       0.33615242      -0.00000000       0.00000000      -0.00485316
Ag       0.00000000       2.85893272       4.62585031        3       0.52616546      -0.00000000       0.00357705       0.00578779
Ag       0.00000000      -2.85893272      -4.62585031        3       0.52616546       0.00000000      -0.00357705      -0.00578779
Ag      -0.00000000      -0.00000000      -4.71433368        3       0.33615242      -0.00000000      -0.00000000       0.00485316
Ag       0.00000000       2.85893272      -4.62585031        3       0.52616546       0.00000000       0.00357705      -0.00578779
Ag       2.35716684      -1.45680923       3.81397607        3       0.33615242      -0.00242658       0.00149971      -0.00392629
Ag       2.35716684       1.45680923       3.81397607        3       0.33615242      -0.00242658      -0.00149971      -0.00392629
Ag       2.35716684      -1.45680923      -3.81397607        3       0.33615242      -0.00242658       0.00149971       0.00392629
Ag       2.35716684       1.45680923      -3.81397607        3       0.33615242      -0.00242658      -0.00149971       0.00392629
Ag      -2.35716684      -1.45680923       3.81397607        3       0.33615242       0.00242658       0.00149971      -0.00392629
Ag      -2.35716684       1.45680923       3.81397607        3       0.33615242       0.00242658      -0.00149971      -0.00392629
Ag      -2.35716684      -1.45680923      -3.81397607        3       0.33615242       0.00242658       0.00149971       0.00392629
Ag      -2.35716684       1.45680923      -3.81397607        3       0.33615242       0.00242658      -0.00149971       0.00392629
Ag       3.81397607       2.35716684      -1.45680923        3       0.33615242      -0.00392629      -0.00242658       0.00149971
Ag       3.81397607       2.35716684       1.45680923        3       0.33615242      -0.00392629      -0.00242658      -0.00149971
Ag      -3.81397607       2.35716684      -1.45680923        3       0.33615242       0.00392629      -0.00242658       0.00149971
Ag      -3.81397607       2.35716684       1.45680923        3       0.33615242       0.00392629      -0.00242658      -0.00149971
Ag       3.81397607      -2.35716684      -1.45680923        3       0.33615242      -0.00392629       0.00242658       0.00149971
Ag       3.81397607      -2.35716684       1.45680923        3       0.33615242      -0.00392629       0.00242658      -0.00149971
Ag      -3.81397607      -2.35716684      -1.45680923        3       0.33615242       0.00392629       0.00242658       0.00149971
Ag      -3.81397607      -2.35716684       1.45680923        3       0.33615242       0.00392629       0.00242658      -0.00149971
Ag      -1.45680923       3.81397607       2.35716684        3       0.33615242       0.00149971      -0.00392629      -0.00242658
Ag       1.45680923       3.81397607       2.35716684        3       0.33615242      -0.00149971      -0.00392629      -0.00242658
Ag      -1.45680923      -3.81397607       2.35716684        3       0.33615242       0.00149971       0.00392629      -0.00242658
Ag       1.45680923      -3.81397607       2.35716684        3       0.33615242      -0.00149971       0.00392629      -0.00242658
Ag      -1.45680923       3.81397607      -2.35716684        3       0.33615242       0.00149971      -0.00392629       0.00242658
Ag       1.45680923       3.81397607      -2.35716684        3       0.33615242      -0.00149971      -0.00392629       0.00242658
Ag      -1.45680923      -3.81397607      -2.35716684        3       0.33615242       0.00149971       0.00392629       0.00242658
Ag       1.45680923      -3.81397607      -2.35716684        3       0.33615242      -0.00149971       0.00392629       0.00242658
